 Title Card Required
GAUSSIAN             33 MOL ORBITALS     87 PRIMITIVES       13 NUCLEI
  C    1    (CENTRE  1)  -0.07412090  0.00000000  0.00000000  CHARGE =  6.0
  C    2    (CENTRE  2)   2.83605733  0.00000014  0.00000000  CHARGE =  6.0
  H    3    (CENTRE  3)   3.51005897  1.65076067 -0.95353216  CHARGE =  1.0
  H    4    (CENTRE  4)   3.51005904  0.00040253  1.90636662  CHARGE =  1.0
  H    5    (CENTRE  5)   3.51006008 -1.65116274 -0.95283446  CHARGE =  1.0
  C    6    (CENTRE  6)  -1.39370736  2.29608018  0.00000000  CHARGE =  6.0
  H    7    (CENTRE  7)  -0.07676645  3.83032568  0.01641668  CHARGE =  1.0
  H    8    (CENTRE  8)  -2.54361795  2.41259476 -1.65910886  CHARGE =  1.0
  H    9    (CENTRE  9)  -2.56827088  2.39842754  1.64269221  CHARGE =  1.0
  C   10    (CENTRE 10)  -1.39370713 -2.29608031  0.00000000  CHARGE =  6.0
  H   11    (CENTRE 11)  -1.21863947 -3.17407667 -1.81300465  CHARGE =  1.0
  H   12    (CENTRE 12)  -0.62370188 -3.51599479  1.41683192  CHARGE =  1.0
  H   13    (CENTRE 13)  -3.34631308 -1.95127699  0.39617272  CHARGE =  1.0
CENTRE ASSIGNMENTS    1  1  1  1  1  1  1  1  1  1  1  1  1  1  1  2  2  2  2  2
CENTRE ASSIGNMENTS    2  2  2  2  2  2  2  2  2  2  3  3  3  4  4  4  5  5  5  6
CENTRE ASSIGNMENTS    6  6  6  6  6  6  6  6  6  6  6  6  6  6  7  7  7  8  8  8
CENTRE ASSIGNMENTS    9  9  9 10 10 10 10 10 10 10 10 10 10 10 10 10 10 10 11 11
CENTRE ASSIGNMENTS   11 12 12 12 13 13 13
TYPE ASSIGNMENTS      1  1  1  1  1  1  2  2  3  3  4  4  2  3  4  1  1  1  1  1
TYPE ASSIGNMENTS      1  2  2  3  3  4  4  2  3  4  1  1  1  1  1  1  1  1  1  1
TYPE ASSIGNMENTS      1  1  1  1  1  2  2  3  3  4  4  2  3  4  1  1  1  1  1  1
TYPE ASSIGNMENTS      1  1  1  1  1  1  1  1  1  2  2  3  3  4  4  2  3  4  1  1
TYPE ASSIGNMENTS      1  1  1  1  1  1  1
EXPONENTS  0.1531723D+03 0.2307303D+02 0.4923290D+01 0.5725570D+01 0.4550400D+00
EXPONENTS  0.1470700D+00 0.4251310D+01 0.8632700D+00 0.4251310D+01 0.8632700D+00
EXPONENTS  0.4251310D+01 0.8632700D+00 0.2013500D+00 0.2013500D+00 0.2013500D+00
EXPONENTS  0.1531723D+03 0.2307303D+02 0.4923290D+01 0.5725570D+01 0.4550400D+00
EXPONENTS  0.1470700D+00 0.4251310D+01 0.8632700D+00 0.4251310D+01 0.8632700D+00
EXPONENTS  0.4251310D+01 0.8632700D+00 0.2013500D+00 0.2013500D+00 0.2013500D+00
EXPONENTS  0.4501800D+01 0.6814440D+00 0.1513980D+00 0.4501800D+01 0.6814440D+00
EXPONENTS  0.1513980D+00 0.4501800D+01 0.6814440D+00 0.1513980D+00 0.1531723D+03
EXPONENTS  0.2307303D+02 0.4923290D+01 0.5725570D+01 0.4550400D+00 0.1470700D+00
EXPONENTS  0.4251310D+01 0.8632700D+00 0.4251310D+01 0.8632700D+00 0.4251310D+01
EXPONENTS  0.8632700D+00 0.2013500D+00 0.2013500D+00 0.2013500D+00 0.4501800D+01
EXPONENTS  0.6814440D+00 0.1513980D+00 0.4501800D+01 0.6814440D+00 0.1513980D+00
EXPONENTS  0.4501800D+01 0.6814440D+00 0.1513980D+00 0.1531723D+03 0.2307303D+02
EXPONENTS  0.4923290D+01 0.5725570D+01 0.4550400D+00 0.1470700D+00 0.4251310D+01
EXPONENTS  0.8632700D+00 0.4251310D+01 0.8632700D+00 0.4251310D+01 0.8632700D+00
EXPONENTS  0.2013500D+00 0.2013500D+00 0.2013500D+00 0.4501800D+01 0.6814440D+00
EXPONENTS  0.1513980D+00 0.4501800D+01 0.6814440D+00 0.1513980D+00 0.4501800D+01
EXPONENTS  0.6814440D+00 0.1513980D+00
MO    1     MO 0.0        OCC NO =    1.0000000  ORB. ENERGY =  -10.465334
 -0.20610176D+00 -0.27853176D+00 -0.14670344D+00  0.38098064D-02 -0.40282383D-02
  0.49756839D-02 -0.22974863D-02 -0.13181787D-02 -0.40215648D-04 -0.23073657D-04
  0.15837390D-03  0.90866745D-04  0.90946782D-03  0.10217847D-03 -0.57600222D-04
  0.21634343D+01  0.29237265D+01  0.15399348D+01 -0.32087495D-01  0.33927204D-01
 -0.16268526D-01 -0.52214246D-03 -0.29957832D-03 -0.87326904D-04 -0.50103657D-04
  0.49962253D-04  0.28665755D-04  0.54853190D-03  0.83726276D-05  0.11922744D-04
 -0.98757605D-03 -0.13873470D-02  0.34821594D-02 -0.97616225D-03 -0.13713129D-02
  0.34666949D-02 -0.95838521D-03 -0.13463397D-02  0.34628557D-02 -0.98348857D-02
 -0.13291143D-01 -0.70004819D-02  0.51801856D-03 -0.54771871D-03 -0.23870083D-03
 -0.39158166D-03 -0.22466929D-03 -0.56831865D-03 -0.32607182D-03 -0.24330278D-03
 -0.13959454D-03  0.16667988D-03  0.41285909D-03  0.14735015D-03 -0.21671734D-03
 -0.30444457D-03 -0.77476074D-04  0.79490383D-04  0.11166811D-03 -0.90502398D-04
  0.13210234D-04  0.18557740D-04 -0.21953677D-03 -0.69806569D-03 -0.94338576D-03
 -0.49688388D-03  0.19302634D-03 -0.20409333D-03 -0.52001510D-03 -0.84098364D-03
 -0.48251288D-03  0.71294395D-03  0.40905033D-03  0.24391176D-03  0.13994394D-03
  0.55049444D-03 -0.47495388D-03 -0.15235146D-03 -0.16320741D-03 -0.22927381D-03
 -0.27744397D-03 -0.26764732D-03 -0.37599101D-03  0.12735137D-04  0.21958040D-03
  0.30846659D-03  0.30769728D-03
MO    2     MO 0.0        OCC NO =    1.0000000  ORB. ENERGY =  -10.462697
  0.21624397D+01  0.29223822D+01  0.15392268D+01 -0.28376563D-01  0.30003509D-01
 -0.10280118D-01 -0.22300511D-03 -0.12794879D-03  0.14291951D-03  0.81999815D-04
 -0.11049819D-04 -0.63398144D-05 -0.57253672D-03 -0.25615844D-03  0.88763873D-05
  0.20719224D+00  0.28000547D+00  0.14747965D+00 -0.21013833D-02  0.22218643D-02
  0.12170306D-02  0.36585424D-02  0.20990822D-02  0.30945148D-04  0.17754724D-04
  0.45524700D-03  0.26119717D-03 -0.12900948D-02  0.20886336D-04 -0.25469481D-03
 -0.10807409D-03 -0.15182251D-03  0.23858116D-03 -0.90266109D-04 -0.12680585D-03
  0.61009214D-03 -0.62760048D-04 -0.88165329D-04  0.18174936D-03  0.82130414D-02
  0.11099337D-01  0.58460514D-02  0.11344391D-02 -0.11994812D-02  0.22018341D-02
 -0.35624817D-02 -0.20439676D-02  0.47187706D-02  0.27073863D-02 -0.27608962D-04
 -0.15840593D-04  0.11011594D-02 -0.62059716D-03  0.13185704D-04  0.42974449D-04
  0.60370515D-04 -0.26912691D-03  0.21855963D-03  0.30703261D-03  0.34255442D-03
  0.22307101D-03  0.31337020D-03  0.32036449D-03  0.84827342D-02  0.11463807D-01
  0.60380190D-02  0.11276662D-02 -0.11923200D-02  0.17997790D-02 -0.27426344D-02
 -0.15735817D-02 -0.53472828D-02 -0.30679941D-02 -0.28018869D-03 -0.16075777D-03
  0.46669359D-03  0.82683344D-03  0.15564780D-03  0.15939606D-03  0.22391962D-03
  0.39851501D-03  0.13460760D-03  0.18909678D-03  0.18872548D-03  0.25709324D-03
  0.36116464D-03 -0.35626219D-04
MO    3     MO 0.0        OCC NO =    1.0000000  ORB. ENERGY =  -10.458577
 -0.79952076D-02 -0.10804950D-01 -0.56909971D-02  0.15872670D-02 -0.16782715D-02
  0.52124081D-02  0.24651963D-02  0.14144020D-02  0.37202711D-02  0.21344990D-02
 -0.82808344D-04 -0.47511142D-04 -0.59106403D-03 -0.79030624D-03 -0.11571249D-04
 -0.15035182D-03 -0.20318971D-03 -0.10702058D-03  0.26879853D-03 -0.28420986D-03
 -0.29626553D-03  0.14199288D-03  0.81468168D-04  0.82040455D-03  0.47070566D-03
 -0.25217652D-03 -0.14468584D-03  0.18208734D-03 -0.54493370D-03  0.17811452D-03
  0.23029803D-03  0.32352273D-03  0.10056453D-03 -0.51046796D-04 -0.71710550D-04
 -0.24914472D-03 -0.22475801D-03 -0.31574010D-03  0.68081519D-05  0.74085399D-01
  0.10012111D+00  0.52734064D-01 -0.91169303D-03  0.96396415D-03 -0.11887424D-02
  0.69156738D-03  0.39678557D-03  0.47125741D-03  0.27038311D-03 -0.93346724D-04
 -0.53557519D-04 -0.70933699D-03 -0.18490806D-03  0.57824650D-04  0.23026938D-03
  0.32348247D-03  0.39106340D-03 -0.23160653D-03 -0.32536091D-03  0.10461656D-03
 -0.22317160D-03 -0.31351151D-03 -0.53054565D-04  0.21718580D+01  0.29351105D+01
  0.15459308D+01 -0.32368308D-01  0.34224116D-01 -0.16958270D-01  0.54238306D-03
  0.31119133D-03  0.84116184D-03  0.48261512D-03 -0.81901082D-04 -0.46990602D-04
 -0.38656809D-03 -0.68543209D-03  0.30589244D-04 -0.97653214D-03 -0.13718326D-02
  0.35403491D-02 -0.98270112D-03 -0.13804987D-02  0.35033140D-02 -0.97832054D-03
 -0.13743449D-02  0.35132920D-02
MO    4     MO 0.0        OCC NO =    1.0000000  ORB. ENERGY =  -10.457903
 -0.80244559D-02 -0.10844477D-01 -0.57118160D-02  0.14270678D-02 -0.15088875D-02
  0.45458379D-02  0.19920278D-02  0.11429225D-02 -0.43528399D-02 -0.24974342D-02
 -0.23569904D-05 -0.13523191D-05 -0.43034985D-03  0.11679739D-02  0.38036690D-04
  0.86172607D-02  0.11645610D-01  0.61337751D-02  0.28190730D-03 -0.29807021D-03
 -0.13428260D-03  0.27726855D-03  0.15908234D-03 -0.84748411D-03 -0.48624252D-03
 -0.29246078D-05 -0.16779886D-05  0.16374567D-03  0.52192582D-03  0.14842105D-04
 -0.20103449D-03 -0.28241330D-03 -0.26323775D-03 -0.71349850D-04 -0.10023228D-03
 -0.10473507D-03  0.13228218D-03  0.18583003D-03  0.10918561D-03  0.21718369D+01
  0.29350819D+01  0.15459157D+01 -0.32324585D-01  0.34177886D-01 -0.16971326D-01
  0.26819394D-03  0.15387580D-03 -0.80902530D-03 -0.46417684D-03  0.50831120D-04
  0.29164266D-04 -0.37660275D-03  0.65588374D-03 -0.41478528D-04 -0.10057787D-02
 -0.14129181D-02  0.35665850D-02 -0.97626858D-03 -0.13714623D-02  0.35153712D-02
 -0.95891308D-03 -0.13470813D-02  0.35543006D-02 -0.74516101D-01 -0.10070317D+00
 -0.53040638D-01  0.13446844D-02 -0.14217807D-02  0.49308805D-03  0.52898573D-03
  0.30350463D-03 -0.16164274D-03 -0.92742238D-04  0.23511660D-03  0.13489774D-03
 -0.40341483D-03  0.20993260D-03 -0.16983429D-03  0.19321603D-04  0.27142991D-04
 -0.33671507D-03  0.17412848D-03  0.24461572D-03 -0.10620404D-03 -0.16070879D-03
 -0.22576374D-03 -0.10464384D-03
MO    5     MO 0.0        OCC NO =    1.0000000  ORB. ENERGY =   -0.933284
 -0.33734816D+00 -0.45590187D+00 -0.24012477D+00 -0.13171798D+00  0.13926991D+00
  0.18722768D-01 -0.62266574D-01 -0.35725337D-01 -0.80256296D-03 -0.46046909D-03
 -0.93591876D-05 -0.53698174D-05 -0.36377022D-02 -0.26758701D-03  0.22112034D-04
 -0.15650905D+00 -0.21151077D+00 -0.11140330D+00 -0.58286560D-01  0.61628369D-01
  0.17609412D-01 -0.70759441D-01 -0.40598105D-01 -0.85659493D-04 -0.49146983D-04
 -0.19815110D-03 -0.11368884D-03 -0.53870732D-02  0.12648430D-03  0.11770556D-03
  0.12236203D-01  0.17189420D-01  0.33700661D-03  0.12093602D-01  0.16989095D-01
  0.96425746D-04  0.12262416D-01  0.17226245D-01  0.31452371D-03 -0.23261594D+00
 -0.31436378D+00 -0.16557627D+00 -0.87177748D-01  0.92176008D-01  0.21822878D-01
  0.49395073D-01  0.28340336D-01 -0.10191157D+00 -0.58471585D-01  0.38798286D-04
  0.22260448D-04  0.26160680D-02 -0.57216706D-02 -0.10184422D-03  0.17198690D-01
  0.24160723D-01  0.10439659D-02  0.18151402D-01  0.25499093D-01  0.61624459D-03
  0.18154217D-01  0.25503048D-01  0.79708723D-03 -0.23370858D+00 -0.31584040D+00
 -0.16635401D+00 -0.87794279D-01  0.92827888D-01  0.21392102D-01  0.49859552D-01
  0.28606830D-01  0.10221504D+00  0.58645701D-01 -0.47375080D-04 -0.27181369D-04
  0.29211715D-02  0.53852956D-02 -0.32108183D-04  0.17732267D-01  0.24910292D-01
  0.85607127D-03  0.17519717D-01  0.24611702D-01  0.81825211D-03  0.18659280D-01
  0.26212561D-01  0.10582191D-02
MO    6     MO 0.0        OCC NO =    1.0000000  ORB. ENERGY =   -0.800476
  0.77867182D-03  0.10523192D-02  0.55425941D-03  0.34587205D-03 -0.36570232D-03
 -0.24331321D-03 -0.38628510D-02 -0.22163039D-02 -0.28913416D+00 -0.16589021D+00
 -0.13775720D-03 -0.79037951D-04  0.20223323D-03 -0.23840819D-01 -0.31020728D-04
  0.75242479D-02  0.10168482D-01  0.53557675D-02  0.27621927D-02 -0.29205606D-02
 -0.12810109D-02 -0.42139053D-03 -0.24177207D-03 -0.47780380D-01 -0.27413909D-01
  0.15620507D-03  0.89622383D-04  0.16499673D-03 -0.96044335D-03 -0.77078781D-05
 -0.54920249D-02 -0.77151978D-02 -0.10652248D-02 -0.78889659D-03 -0.11082421D-02
  0.46365108D-04  0.38133258D-02  0.53569609D-02  0.92125563D-03  0.31178022D+00
  0.42134863D+00  0.22192549D+00  0.12337250D+00 -0.13044595D+00 -0.27385431D-01
 -0.34820008D-01 -0.19977918D-01  0.24797864D-02  0.14227731D-02  0.28490106D-03
  0.16346148D-03  0.78534315D-03 -0.25730612D-02  0.80193974D-04 -0.36054160D-01
 -0.50648892D-01 -0.46597172D-02 -0.32258806D-01 -0.45317178D-01 -0.39696570D-02
 -0.32119671D-01 -0.45121721D-01 -0.39342171D-02 -0.31664936D+00 -0.42792893D+00
 -0.22539135D+00 -0.12495271D+00  0.13211676D+00  0.29087868D-01  0.37221513D-01
  0.21355778D-01  0.89288121D-03  0.51228902D-03 -0.13349535D-02 -0.76592720D-03
 -0.77037890D-03 -0.24996607D-02 -0.10537879D-03  0.35479485D-01  0.49841588D-01
  0.42686023D-02  0.36148229D-01  0.50781040D-01  0.44188486D-02  0.30131314D-01
  0.42328476D-01  0.32110235D-02
MO    7     MO 0.0        OCC NO =    1.0000000  ORB. ENERGY =   -0.790767
 -0.14396214D-01 -0.19455452D-01 -0.10247240D-01 -0.58387155D-02  0.61734731D-02
  0.74779354D-03  0.24113452D+00  0.13835050D+00 -0.53770920D-02 -0.30850971D-02
  0.41424470D-03  0.23767217D-03  0.23380913D-01 -0.10192698D-04  0.99653576D-04
 -0.38938557D+00 -0.52622669D+00 -0.27716505D+00 -0.15327491D+00  0.16206279D+00
  0.38706876D-01  0.14626491D-01  0.83919234D-02 -0.62679513D-03 -0.35962260D-03
  0.18417960D-02  0.10567272D-02  0.44302984D-02 -0.88628662D-04  0.21325036D-03
  0.43611244D-01  0.61265085D-01  0.51133726D-02  0.44347982D-01  0.62300055D-01
  0.51167365D-02  0.43628219D-01  0.61288932D-01  0.50910654D-02  0.14865349D+00
  0.20089454D+00  0.10581171D+00  0.58188850D-01 -0.61525057D-01 -0.13323605D-01
  0.44840130D-01  0.25726945D-01  0.28842657D-01  0.16548424D-01  0.54982775D-04
  0.31546270D-04  0.22940404D-02 -0.12561939D-02 -0.18600676D-03 -0.10072927D-01
 -0.14150450D-01 -0.62092725D-03 -0.19313365D-01 -0.27131420D-01 -0.24753262D-02
 -0.19351064D-01 -0.27184378D-01 -0.23813173D-02  0.13675168D+00  0.18481010D+00
  0.97339988D-01  0.54387073D-01 -0.57505308D-01 -0.10115045D-01  0.44039405D-01
  0.25267531D-01 -0.27464880D-01 -0.15757926D-01  0.57691552D-03  0.33100426D-03
  0.21067465D-02  0.14488523D-02 -0.24659716D-04 -0.13664885D-01 -0.19196433D-01
 -0.18827491D-02 -0.11315294D-01 -0.15895727D-01 -0.15010791D-02 -0.20527282D-01
 -0.28836730D-01 -0.33815785D-02
MO    8     MO 0.0        OCC NO =    1.0000000  ORB. ENERGY =   -0.608248
 -0.30128905D+00 -0.40717057D+00 -0.21445786D+00 -0.12960280D+00  0.13703346D+00
  0.43008237D-01 -0.18107849D-01 -0.10389347D-01 -0.43742764D-03 -0.25097334D-03
  0.77380570D-03  0.44396966D-03 -0.68008790D-03 -0.69653848D-03  0.10582385D-03
  0.10274501D+00  0.13885252D+00  0.73134006D-01  0.41236212D-01 -0.43600455D-01
 -0.17957100D-01 -0.25184453D+00 -0.14449535D+00 -0.12656755D-02 -0.72617910D-03
  0.31385922D-03  0.18007618D-03 -0.19195355D-01 -0.10918163D-03 -0.56858962D-03
 -0.26808872D-01 -0.37661109D-01 -0.56278909D-02 -0.26359792D-01 -0.37030241D-01
 -0.47983236D-02 -0.26364358D-01 -0.37036656D-01 -0.55939856D-02  0.12647976D+00
  0.17092833D+00  0.90028423D-01  0.50652702D-01 -0.53556831D-01 -0.24379876D-01
  0.16617359D+00  0.95341807D-01 -0.27308559D+00 -0.15668237D+00  0.48469282D-03
  0.27809165D-03  0.12955930D-01 -0.19108491D-01  0.82233000D-04 -0.32368077D-01
 -0.45470682D-01 -0.69822533D-02 -0.34330397D-01 -0.48227350D-01 -0.65592434D-02
 -0.34239033D-01 -0.48099001D-01 -0.66298756D-02  0.12667207D+00  0.17118822D+00
  0.90165310D-01  0.50707339D-01 -0.53614600D-01 -0.25384177D-01  0.16434281D+00
  0.94291397D-01  0.27579521D+00  0.15823702D+00  0.16257198D-02  0.93275385D-03
  0.11247485D-01  0.19726246D-01  0.47692257D-03 -0.33737057D-01 -0.47393824D-01
 -0.62195689D-02 -0.32948427D-01 -0.46285957D-01 -0.63111191D-02 -0.34405539D-01
 -0.48332909D-01 -0.74447620D-02
MO    9     MO 0.0        OCC NO =    1.0000000  ORB. ENERGY =   -0.532926
  0.26830391D-02  0.36259351D-02  0.19097900D-02  0.84382760D-03 -0.89220773D-03
  0.14459633D-03 -0.51479886D-01 -0.29536494D-01 -0.10817385D-01 -0.62064554D-02
  0.36323973D+00  0.20840816D+00 -0.72759764D-02 -0.17916866D-02  0.35788399D-01
 -0.89307866D-02 -0.12069318D-01 -0.63569432D-02 -0.26486768D-02  0.28005364D-02
  0.58455415D-02  0.41435310D-01  0.23773436D-01 -0.13243872D-01 -0.75986483D-02
  0.26724949D+00  0.15333392D+00  0.22278566D-02 -0.15959544D-02  0.22850212D-01
 -0.17655167D-01 -0.24801982D-01 -0.53732322D-02  0.41255817D-01  0.57956180D-01
  0.10189382D-01 -0.14386957D-01 -0.20210800D-01 -0.48831020D-02  0.27319135D-02
  0.36919854D-02  0.19445789D-02  0.15187533D-02 -0.16058298D-02 -0.12119710D-02
 -0.53927773D-01 -0.30940965D-01 -0.43926212D-01 -0.25202587D-01  0.36115773D+00
  0.20721361D+00 -0.51732777D-02 -0.36393870D-02  0.31603005D-01 -0.10316146D-01
 -0.14492124D-01 -0.26308452D-02 -0.40732147D-01 -0.57220529D-01 -0.10188609D-01
  0.48139748D-01  0.67626728D-01  0.12241483D-01  0.45281350D-02  0.61194500D-02
  0.32231312D-02  0.80573716D-03 -0.85193340D-03 -0.52361054D-02 -0.35976864D-01
 -0.20641662D-01  0.50959261D-01  0.29237786D-01  0.36899079D+00  0.21170782D+00
 -0.35840576D-02  0.30316187D-02  0.33381568D-01 -0.53926521D-01 -0.75755989D-01
 -0.12582630D-01  0.31105455D-01  0.43696950D-01  0.80344245D-02  0.17230479D-01
  0.24205380D-01  0.53440100D-02
MO   10     MO 0.0        OCC NO =    1.0000000  ORB. ENERGY =   -0.523381
 -0.11785681D-01 -0.15927503D-01 -0.83890599D-02 -0.34253692D-02  0.36217598D-02
 -0.60848885D-03  0.33094529D+00  0.18987928D+00  0.54418564D-01  0.31222556D-01
  0.64619966D-01  0.37075592D-01  0.42420921D-01  0.73376215D-02  0.61682672D-02
  0.52350842D-01  0.70748412D-01  0.37263384D-01  0.19902192D-01 -0.21043267D-01
 -0.27968861D-01 -0.26526982D+00 -0.15219809D+00  0.66922018D-01  0.38396390D-01
  0.33170966D-01  0.19031784D-01 -0.17013099D-01  0.60285532D-02  0.37458820D-02
 -0.13086123D-01 -0.18383389D-01  0.87432279D-03 -0.16728414D-01 -0.23500079D-01
 -0.13028714D-02 -0.30360759D-01 -0.42650801D-01 -0.44592199D-02 -0.20099692D-01
 -0.27163294D-01 -0.14306982D-01 -0.95250522D-02  0.10071163D-01  0.10689993D-01
  0.30169705D+00  0.17309815D+00  0.27625675D+00  0.15850183D+00  0.66427035D-01
  0.38112394D-01  0.27415568D-01  0.21612740D-01  0.59068633D-02  0.64275997D-01
  0.90294934D-01  0.15393924D-01 -0.29293212D-01 -0.41151110D-01 -0.83774503D-02
 -0.13736145D-01 -0.19296540D-01 -0.46145724D-02 -0.28354268D-01 -0.38318761D-01
 -0.20182597D-01 -0.10174324D-01  0.10757660D-01  0.22171462D-01  0.21844829D+00
  0.12533432D+00 -0.31834298D+00 -0.18264872D+00  0.66252371D-01  0.38012181D-01
  0.20519650D-01 -0.21566974D-01  0.64081116D-02  0.19796160D-01  0.27809650D-01
  0.29245946D-02  0.53213314D-01  0.74754075D-01  0.11524565D-01 -0.35884354D-01
 -0.50410348D-01 -0.12769287D-01
MO   11     MO 0.0        OCC NO =    1.0000000  ORB. ENERGY =   -0.512796
  0.26485390D-02  0.35793107D-02  0.18852328D-02 -0.61003880D-04  0.64501484D-04
 -0.39811348D-02 -0.59326280D-01 -0.34038349D-01  0.36453865D+00  0.20915341D+00
  0.27683202D-02  0.15883188D-02 -0.64486515D-02  0.42958048D-01  0.27193188D-03
 -0.65168662D-02 -0.88070777D-02 -0.46387121D-02 -0.13942830D-02  0.14742230D-02
  0.56409647D-02  0.46606290D-01  0.26740277D-01  0.39113011D+00  0.22441021D+00
  0.49573341D-03  0.28442617D-03  0.23967145D-02  0.32981242D-01 -0.11718949D-03
  0.53379947D-01  0.74988160D-01  0.14312074D-01  0.32702000D-02  0.45939776D-02
  0.21362489D-03 -0.47252137D-01 -0.66379812D-01 -0.14070032D-01  0.41765111D-01
  0.56442555D-01  0.29728450D-01  0.16482841D-01 -0.17427870D-01 -0.27396788D-01
  0.30157020D+00  0.17302537D+00 -0.16635514D+00 -0.95445966D-01  0.59071706D-02
  0.33892287D-02  0.21745020D-01 -0.99183725D-02  0.11521142D-03  0.65999765D-02
  0.92716484D-02  0.62447868D-02 -0.35955144D-01 -0.50509794D-01 -0.69785987D-02
 -0.34500224D-01 -0.48465922D-01 -0.59620794D-02 -0.35460295D-01 -0.47922048D-01
 -0.25240675D-01 -0.13170745D-01  0.13925879D-01  0.25872342D-01 -0.37619572D+00
 -0.21584163D+00 -0.71379497D-01 -0.40953861D-01 -0.53658791D-03 -0.30786637D-03
 -0.29653850D-01  0.19991250D-04  0.36439039D-03  0.54813757D-02  0.77002378D-02
 -0.12199541D-02 -0.10602977D-01 -0.14895064D-01 -0.55392081D-02  0.58057840D-01
  0.81559667D-01  0.12226504D-01
MO   12     MO 0.0        OCC NO =    1.0000000  ORB. ENERGY =   -0.461730
  0.13180402D-03  0.17812370D-03  0.93818242D-04 -0.26288619D-03  0.27795854D-03
 -0.15181156D-02 -0.16931725D-02 -0.97145472D-03  0.91432084D-03  0.52458997D-03
  0.37915910D-02  0.21754186D-02 -0.25577625D-03  0.33796951D-03 -0.49697781D-03
 -0.12925072D-02 -0.17467309D-02 -0.92000796D-03 -0.11540397D-02  0.12202055D-02
 -0.14080810D-03  0.22633582D-02  0.12985978D-02 -0.34897133D-01 -0.20022168D-01
 -0.30543839D+00 -0.17524474D+00  0.25233158D-07 -0.22221877D-02 -0.30567015D-01
  0.19250061D-01  0.27042490D-01  0.53695406D-02 -0.49237303D-01 -0.69168573D-01
 -0.14754156D-01  0.30576812D-01  0.42954311D-01  0.10227006D-01 -0.91902833D-04
 -0.12420009D-03 -0.65416532D-04  0.11059037D-03 -0.11693097D-03  0.23194932D-03
  0.15683400D-01  0.89983234D-02  0.73566701D-02  0.42208765D-02  0.51412815D+00
  0.29498012D+00  0.20308149D-02  0.67640880D-03  0.51871782D-01  0.33679769D-02
  0.47313346D-02  0.11881214D-02 -0.74014509D-01 -0.10397560D+00 -0.22229067D-01
  0.70275672D-01  0.98723279D-01  0.21113918D-01  0.20326564D-02  0.27469895D-02
  0.14468470D-02  0.17235255D-02 -0.18223423D-02  0.88074999D-03 -0.21946214D-01
 -0.12591602D-01  0.14611970D-01  0.83835920D-02 -0.27734805D+00 -0.15912795D+00
 -0.32627948D-03  0.13444669D-02 -0.26157174D-01  0.41763460D-01  0.58669317D-01
  0.13078705D-01 -0.37807420D-01 -0.53111871D-01 -0.12789850D-01 -0.48288684D-02
 -0.67835953D-02 -0.49318896D-03
MO   13     MO 0.0        OCC NO =    1.0000000  ORB. ENERGY =   -0.457858
 -0.24325580D-02 -0.32874279D-02 -0.17314973D-02  0.94155360D-03 -0.99553675D-03
  0.93026023D-02  0.82673518D-02  0.47433785D-02  0.12305684D-01  0.70603646D-02
  0.46280151D-02  0.26553155D-02 -0.78873652D-04  0.80475943D-03  0.12114721D-02
  0.22147815D-02  0.29931185D-02  0.15764838D-02 -0.25024678D-04  0.26459446D-04
 -0.33615350D-02 -0.80566695D-02 -0.46225000D-02 -0.70899553D-02 -0.40678494D-02
  0.49725358D+00  0.28529837D+00  0.60203787D-03  0.49249564D-03  0.48826205D-01
 -0.42340070D-01 -0.59479340D-01 -0.13327054D-01  0.80387202D-01  0.11292796D+00
  0.24684092D-01 -0.38845711D-01 -0.54570463D-01 -0.10753355D-01 -0.21436399D-02
 -0.28969757D-02 -0.15258451D-02 -0.31250832D-02  0.33042571D-02 -0.46405879D-02
  0.84004486D-02  0.48197426D-02 -0.10368834D-02 -0.59491004D-03  0.66644014D-01
  0.38236885D-01 -0.27914067D-03  0.23851843D-02  0.83396212D-02  0.87451181D-03
  0.12285144D-02 -0.57313708D-05 -0.82160299D-02 -0.11541881D-01 -0.11972135D-02
  0.79696031D-02  0.11195700D-01  0.21373710D-02  0.15894769D-02  0.21480641D-02
  0.11313913D-02 -0.73766800D-03  0.77996156D-03 -0.48559925D-02  0.91099827D-03
  0.52268365D-03 -0.13914164D-01 -0.79832271D-02 -0.43571438D+00 -0.24999036D+00
 -0.17621387D-02 -0.25904956D-02 -0.44751234D-01  0.68373905D-01  0.96051677D-01
  0.20298883D-01 -0.49956208D-01 -0.70178492D-01 -0.13781456D-01 -0.15355429D-01
 -0.21571311D-01 -0.43716549D-02
MO   14     MO 0.0        OCC NO =    1.0000000  ORB. ENERGY =   -0.430086
 -0.19379295D-02 -0.26189728D-02 -0.13794202D-02  0.90748286D-03 -0.95951260D-03
  0.78839059D-02 -0.24126552D-01 -0.13842567D-01 -0.13330681D+00 -0.76484546D-01
  0.21822122D-03  0.12520404D-03 -0.26859149D-02 -0.13313408D-01  0.72216701D-04
 -0.40659534D-03 -0.54948446D-03 -0.28941498D-03 -0.20277385D-02  0.21439972D-02
 -0.27158408D-02  0.21589032D-01  0.12386669D-01  0.49265730D+00  0.28266126D+00
 -0.17702046D-01 -0.10156518D-01  0.38850734D-02  0.50571017D-01 -0.20085152D-02
  0.73334781D-01  0.10302072D+00  0.23469942D-01 -0.12111042D-02 -0.17013595D-02
  0.36757864D-04 -0.67671953D-01 -0.95065575D-01 -0.21825023D-01  0.11884430D-01
  0.16060956D-01  0.84593496D-02  0.40343077D-02 -0.42656113D-02 -0.35258189D-02
 -0.33083085D+00 -0.18981362D+00 -0.85753242D-01 -0.49200772D-01  0.40036575D-01
  0.22970915D-01 -0.32166449D-01 -0.89211269D-02  0.33928508D-02 -0.47127218D-01
 -0.66204325D-01 -0.12834424D-01  0.24559871D-01  0.34501712D-01  0.79606125D-02
  0.36842653D-01  0.51756566D-01  0.11850412D-01 -0.80696305D-02 -0.10905527D-01
 -0.57439714D-02 -0.48064764D-02  0.50820516D-02 -0.60957169D-02  0.33369873D+00
  0.19145906D+00 -0.58920376D-01 -0.33805462D-01 -0.26340539D-01 -0.15112838D-01
  0.31292857D-01 -0.96396337D-02 -0.23659309D-02  0.14942768D-01  0.20991604D-01
  0.44027731D-02  0.25698558D-01  0.36101340D-01  0.80986806D-02 -0.56475107D-01
 -0.79336242D-01 -0.17086242D-01
MO   15     MO 0.0        OCC NO =    1.0000000  ORB. ENERGY =   -0.409941
 -0.24327870D-02 -0.32877373D-02 -0.17316603D-02  0.45190946D-03 -0.47781930D-03
  0.70532446D-02  0.10814152D-01  0.62046004D-02  0.50473038D+00  0.28958817D+00
 -0.17921619D-02 -0.10282497D-02 -0.40907969D-03  0.48244559D-01 -0.14793299D-03
 -0.24899242D-02 -0.33649541D-02 -0.17723306D-02 -0.23267563D-02  0.24601589D-02
 -0.13894326D-02 -0.83846696D-02 -0.48106894D-02 -0.17424634D+00 -0.99973528D-01
 -0.14911049D-01 -0.85551884D-02  0.33746197D-03 -0.22548452D-01 -0.17106126D-02
 -0.27974865D-01 -0.39299096D-01 -0.11209666D-01 -0.22303336D-02 -0.31331731D-02
 -0.49181371D-03  0.29791360D-01  0.41850909D-01  0.11519233D-01 -0.44193740D-01
 -0.59724673D-01 -0.31457150D-01 -0.20127245D-01  0.21281223D-01 -0.27493705D-02
 -0.22770425D-01 -0.13064491D-01 -0.49006132D+00 -0.28117182D+00  0.46735981D-02
  0.26814687D-02 -0.86101448D-02 -0.43919195D-01  0.75422870D-03 -0.66369040D-01
 -0.93235241D-01 -0.24492026D-01  0.41644279D-02  0.58501892D-02  0.11974724D-02
  0.60666109D-02  0.85223763D-02  0.12489153D-02  0.47390980D-01  0.64045513D-01
  0.33732948D-01  0.19795435D-01 -0.20930389D-01 -0.47907952D-02  0.96622999D-02
  0.55437275D-02 -0.49113374D+00 -0.28178712D+00  0.42889375D-02  0.24607703D-02
  0.73624622D-02 -0.47953161D-01  0.23593885D-03  0.32032115D-01  0.44998722D-01
  0.12637515D-01  0.49653390D-01  0.69753093D-01  0.18472088D-01 -0.23482702D-01
 -0.32988505D-01 -0.67143391D-02
MO   16     MO 0.0        OCC NO =    1.0000000  ORB. ENERGY =   -0.387706
 -0.13632364D-01 -0.18423164D-01 -0.97035311D-02 -0.24666203D-02  0.26080418D-02
  0.52302161D-02  0.51806586D+00  0.29723938D+00 -0.11111792D-01 -0.63753712D-02
 -0.67285534D-02 -0.38604957D-02  0.59743059D-01 -0.17261565D-02 -0.47833749D-03
 -0.57381242D-01 -0.77546637D-01 -0.40844027D-01 -0.21894916D-01  0.23150242D-01
  0.39026283D-02 -0.50807904D+00 -0.29150945D+00  0.27797888D-01  0.15948989D-01
 -0.58582902D-02 -0.33611837D-02 -0.47022268D-01  0.26184811D-02 -0.16276656D-02
 -0.18408879D-01 -0.25860797D-01 -0.89061064D-02 -0.22194673D-01 -0.31179081D-01
 -0.93066404D-02 -0.26570944D-01 -0.37326868D-01 -0.11236713D-01  0.37929954D-01
  0.51259615D-01  0.26998581D-01  0.16745288D-01 -0.17705364D-01  0.82877762D-04
 -0.33051053D+00 -0.18962984D+00  0.88790969D-01  0.50943662D-01 -0.30641668D-02
 -0.17580603D-02 -0.38142137D-01  0.13303874D-03 -0.51200401D-03 -0.36043824D-01
 -0.50634372D-01 -0.12926289D-01  0.32697685D-01  0.45933715D-01  0.13073186D-01
  0.32905649D-01  0.46225862D-01  0.13670467D-01  0.32430170D-01  0.43827052D-01
  0.23083829D-01  0.13033313D-01 -0.13780566D-01 -0.10116523D-02 -0.32035904D+00
 -0.18380544D+00 -0.77615863D-01 -0.44531965D-01 -0.16849122D-02 -0.96671543D-03
 -0.36694789D-01 -0.90850533D-03 -0.22255385D-03 -0.51403994D-02 -0.72212342D-02
 -0.11792646D-02 -0.21602567D-01 -0.30347291D-01 -0.79139604D-02  0.55633283D-01
  0.78153648D-01  0.22204172D-01
MO   17     MO 0.0        OCC NO =    1.0000000  ORB. ENERGY =   -0.197680
 -0.24569148D-04 -0.33203444D-04 -0.17488345D-04 -0.20563861D-04  0.21742872D-04
 -0.85547637D-03  0.26081748D-02  0.14964357D-02  0.11405668D-02  0.65439818D-03
  0.82470433D+00  0.47317266D+00  0.15380026D-02  0.36416665D-03  0.13647116D+00
 -0.80520724D-03 -0.10881799D-02 -0.57314735D-03 -0.12055730D-02  0.12746935D-02
 -0.14218392D-02 -0.23707860D-02 -0.13602343D-02  0.37012924D-03  0.21236100D-03
 -0.11795347D+00 -0.67675596D-01  0.68673743D-04  0.15889676D-02 -0.12910847D-01
  0.20903687D-01  0.29365504D-01  0.12616531D-01 -0.42743002D-01 -0.60045378D-01
 -0.27202767D-01  0.22363336D-01  0.31416019D-01  0.15508378D-01  0.14166534D-02
  0.19145056D-02  0.10083754D-02  0.40923104D-03 -0.43269395D-03 -0.79868141D-03
 -0.87282705D-02 -0.50078298D-02 -0.42283787D-02 -0.24260248D-02 -0.13411613D+00
 -0.76948892D-01 -0.65502347D-03 -0.97195930D-03 -0.16241630D-01 -0.19849178D-02
 -0.27884130D-02  0.27428134D-04  0.48427946D-01  0.68031589D-01  0.32990386D-01
 -0.46110307D-01 -0.64775769D-01 -0.31403291D-01  0.36014403D-03  0.48670885D-03
  0.25635090D-03  0.13533240D-02 -0.14309157D-02  0.25414631D-02 -0.59001440D-02
 -0.33851972D-02  0.27329570D-02  0.15680293D-02 -0.12734768D+00 -0.73065509D-01
 -0.67090025D-03  0.97151968D-03 -0.17885758D-01  0.48943661D-01  0.68756066D-01
  0.33032246D-01 -0.39318470D-01 -0.55234594D-01 -0.26613913D-01 -0.10305718D-01
 -0.14477475D-01 -0.81052954D-02
MO   55     MO 0.0        OCC NO =    1.0000000  ORB. ENERGY =  -10.465934
 -0.54298018D-01 -0.73379881D-01 -0.38649386D-01  0.18135415D-02 -0.19175193D-02
  0.42535585D-02 -0.22865406D-02 -0.13118986D-02 -0.30430612D-04 -0.17459510D-04
  0.15434453D-03  0.88554903D-04  0.86678346D-03  0.84064059D-04 -0.56743130D-04
  0.21726476D+01  0.29361775D+01  0.15464928D+01 -0.32117042D-01  0.33958445D-01
 -0.16123698D-01 -0.15128282D-03 -0.86798250D-04 -0.85386723D-04 -0.48990482D-04
  0.77050239D-04  0.44207439D-04  0.45457746D-03  0.99986454D-05 -0.60164057D-05
 -0.99333892D-03 -0.13954427D-02  0.34861072D-02 -0.98492201D-03 -0.13836186D-02
  0.34977051D-02 -0.96120891D-03 -0.13503065D-02  0.34633227D-02 -0.95789076D-02
 -0.12945207D-01 -0.68182764D-02  0.59961612D-03 -0.63399459D-03 -0.88044834D-04
 -0.63756126D-03 -0.36579965D-03 -0.23597659D-03 -0.13539115D-03 -0.24401148D-03
 -0.14000116D-03  0.24012168D-03  0.37003125D-03  0.14756383D-03 -0.21171061D-03
 -0.29741111D-03 -0.95997847D-04  0.94298551D-04  0.13247062D-03 -0.66687901D-04
  0.28781036D-04  0.40431605D-04 -0.19667116D-03 -0.37314760D-03 -0.50428224D-03
 -0.26560685D-03  0.27412331D-03 -0.28983993D-03 -0.39666507D-03 -0.10280410D-02
 -0.58983673D-03  0.33661130D-03  0.19313014D-03  0.22353873D-03  0.12825495D-03
  0.57843642D-03 -0.41771838D-03 -0.14093687D-03 -0.15101341D-03 -0.21214368D-03
 -0.24888112D-03 -0.25651591D-03 -0.36035361D-03  0.25612718D-04  0.23659621D-03
  0.33237041D-03  0.30382989D-03